SIRIUS 7.5.0, git hash: f11a10d9b08615831ccc0521a1900bfa53ddc7a3

     Program PWSCF v.7.2 starts on 19Oct2023 at 18:57: 0 
        Git branch: fix/set-density-matrix
        Last git commit: 343d0a1d62abf715b1e6ab5fcb17fe6630c3e618-dirty
        Last git commit date: Tue Aug 29 18:25:18 2023 +0000
        Last git commit subject: Merge branch 'ristretto' of github.com:electronic-

     This program is part of the open-source Quantum ESPRESSO suite
     for quantum simulation of materials; please cite
         "P. Giannozzi et al., J. Phys.:Condens. Matter 21 395502 (2009);
         "P. Giannozzi et al., J. Phys.:Condens. Matter 29 465901 (2017);
         "P. Giannozzi et al., J. Chem. Phys. 152 154105 (2020);
          URL http://www.quantum-espresso.org", 
     in publications or presentations arising from this work. More details at
     http://www.quantum-espresso.org/quote

     Parallel version (MPI & OpenMP), running on      16 processor cores
     Number of MPI processes:                 1
     Threads/MPI process:                    16

     MPI processes distributed on     1 nodes
     17537 MiB available memory on the printing compute node when the environment starts

     Reading input from CdO.in

     Current dimensions of program PWSCF are:
     Max number of different atomic species (ntypx) = 10
     Max number of k-points (npk) =  40000
     Max angular momentum in pseudopotentials (lmaxx) =  4
     file Cd.pbesol-dn-rrkjus_psl.0.3.1.UPF: wavefunction(s)  4D renormalized
     file O.pbesol-n-kjpaw_psl.0.1.UPF: wavefunction(s)  2P renormalized

     Subspace diagonalization in iterative solution of the eigenvalue problem:
     a serial algorithm will be used


     G-vector sticks info
     --------------------
     sticks:   dense  smooth     PW     G-vecs:    dense   smooth      PW
     Sum        1407     709    215                34569    12181    2103

     Using Slab Decomposition



     bravais-lattice index     =            0
     lattice parameter (alat)  =       6.5045  a.u.
     unit-cell volume          =     194.6124 (a.u.)^3
     number of atoms/cell      =            2
     number of atomic types    =            2
     number of electrons       =        18.00
     number of Kohn-Sham states=           13
     kinetic-energy cutoff     =      60.0000  Ry
     charge density cutoff     =     480.0000  Ry
     scf convergence threshold =      4.0E-10
     mixing beta               =       0.4000
     number of iterations used =            8  plain     mixing
     Exchange-correlation= SLA  PW   PSX  PSC
                           (   1   4  10   8   0   0   0)

     celldm(1)=   6.504516  celldm(2)=   0.000000  celldm(3)=   0.000000
     celldm(4)=   0.000000  celldm(5)=   0.000000  celldm(6)=   0.000000

     crystal axes: (cart. coord. in units of alat)
               a(1) = (   0.000000   0.707107   0.707107 )  
               a(2) = (   0.716537   0.000000   0.716537 )  
               a(3) = (   0.697866   0.697866   0.000000 )  

     reciprocal axes: (cart. coord. in units 2 pi/alat)
               b(1) = ( -0.707107  0.707107  0.707107 )  
               b(2) = (  0.697801 -0.697801  0.697801 )  
               b(3) = (  0.716470  0.716470 -0.716470 )  


     PseudoPot. # 1 for Cd read from file:
     ./pseudo/Cd.pbesol-dn-rrkjus_psl.0.3.1.UPF
     MD5 check sum: 1f02951eb1ebb2be2329879281757063
     Pseudo is Ultrasoft + core correction, Zval = 12.0
     Generated using "atomic" code by A. Dal Corso  v.6.0 svn rev. 13079
     Using radial grid of 1239 points,  6 beta functions with: 
                l(1) =   0
                l(2) =   0
                l(3) =   1
                l(4) =   1
                l(5) =   2
                l(6) =   2
     Q(r) pseudized with 0 coefficients 


     PseudoPot. # 2 for O  read from file:
     ./pseudo/O.pbesol-n-kjpaw_psl.0.1.UPF
     MD5 check sum: 81d73d1479e654e5638b0319f0d6c2c7
     Pseudo is Projector augmented-wave + core cor, Zval =  6.0
     Generated using "atomic" code by A. Dal Corso  v.6.0 svn rev. 13079
     Shape of augmentation charge: BESSEL
     Using radial grid of 1095 points,  4 beta functions with: 
                l(1) =   0
                l(2) =   0
                l(3) =   1
                l(4) =   1
     Q(r) pseudized with 0 coefficients 


     atomic species   valence    mass     pseudopotential
        Cd            12.00   112.41100     Cd( 1.00)
        O              6.00    15.99940     O ( 1.00)

     Starting magnetic structure 
     atomic species   magnetization
        Cd           0.100
        O            0.100

     No symmetry found


                                    s                        frac. trans.

      isym =  1     identity                                     

 cryst.   s( 1) = (     1          0          0      )
                  (     0          1          0      )
                  (     0          0          1      )

 cart.    s( 1) = (  1.0000000  0.0000000 -0.0000000 )
                  ( -0.0000000  1.0000000  0.0000000 )
                  ( -0.0000000  0.0000000  1.0000000 )


   Cartesian axes

     site n.     atom                  positions (alat units)
         1           Cd  tau(   1) = (   0.7120243   0.0058210   0.7083802  )
         2           O   tau(   2) = (   0.7129343   0.6825241   0.6990341  )

   Crystallographic axes

     site n.     atom                  positions (cryst. coord.)
         1           Cd  tau(   1) = (  0.0015393  0.9870978  0.0067815  )
         2           O   tau(   2) = (  0.4727886  0.5090069  0.4989669  )

     number of k points=    36  Marzari-Vanderbilt smearing, width (Ry)=  0.0100
                       cart. coord. in units 2pi/alat
        k(    1) = (   0.0000000   0.0000000   0.0000000), wk =   0.0156250
        k(    2) = (   0.1791174   0.1791174  -0.1791174), wk =   0.0312500
        k(    3) = (  -0.3582349  -0.3582349   0.3582349), wk =   0.0156250
        k(    4) = (   0.1744502  -0.1744502   0.1744502), wk =   0.0312500
        k(    5) = (   0.3535677   0.0046672  -0.0046672), wk =   0.0312500
        k(    6) = (  -0.1837846  -0.5326851   0.5326851), wk =   0.0312500
        k(    7) = (  -0.0046672  -0.3535677   0.3535677), wk =   0.0312500
        k(    8) = (  -0.3489005   0.3489005  -0.3489005), wk =   0.0156250
        k(    9) = (  -0.1697831   0.5280179  -0.5280179), wk =   0.0312500
        k(   10) = (  -0.7071354  -0.0093344   0.0093344), wk =   0.0156250
        k(   11) = (  -0.1767767   0.1767767   0.1767767), wk =   0.0312500
        k(   12) = (   0.0023407   0.3558941  -0.0023407), wk =   0.0312500
        k(   13) = (  -0.5350116  -0.1814582   0.5350116), wk =   0.0312500
        k(   14) = (  -0.3558941  -0.0023407   0.3558941), wk =   0.0312500
        k(   15) = (  -0.0023264   0.0023264   0.3512269), wk =   0.0312500
        k(   16) = (   0.1767910   0.1814439   0.1721095), wk =   0.0312500
        k(   17) = (  -0.3605613  -0.3559084   0.7094618), wk =   0.0312500
        k(   18) = (  -0.1814439  -0.1767910   0.5303444), wk =   0.0312500
        k(   19) = (  -0.5256772   0.5256772  -0.1721238), wk =   0.0312500
        k(   20) = (  -0.3465598   0.7047946  -0.3512412), wk =   0.0312500
        k(   21) = (  -0.8839121   0.1674423   0.1861111), wk =   0.0312500
        k(   22) = (  -0.7047946   0.3465598   0.0069936), wk =   0.0312500
        k(   23) = (  -0.3512269   0.3512269   0.0023264), wk =   0.0312500
        k(   24) = (  -0.1721095   0.5303444  -0.1767910), wk =   0.0312500
        k(   25) = (  -0.7094618  -0.0070079   0.3605613), wk =   0.0312500
        k(   26) = (  -0.5303444   0.1721095   0.1814439), wk =   0.0312500
        k(   27) = (   0.3535534  -0.3535534  -0.3535534), wk =   0.0156250
        k(   28) = (   0.5326708  -0.1744360  -0.5326708), wk =   0.0312500
        k(   29) = (  -0.0046815  -0.7117883   0.0046815), wk =   0.0156250
        k(   30) = (   0.5280036  -0.5280036  -0.1791031), wk =   0.0312500
        k(   31) = (   0.7071211  -0.3488862  -0.3582206), wk =   0.0312500
        k(   32) = (   0.1697688  -0.8862385   0.1791317), wk =   0.0312500
        k(   33) = (   0.3488862  -0.7071211   0.0000143), wk =   0.0312500
        k(   34) = (   0.0046529  -0.0046529  -0.7024539), wk =   0.0156250
        k(   35) = (   0.1837703   0.1744645  -0.8815713), wk =   0.0312500
        k(   36) = (  -0.3535820  -0.3628878  -0.3442190), wk =   0.0156250

                       cryst. coord.
        k(    1) = (   0.0000000   0.0000000   0.0000000), wk =   0.0156250
        k(    2) = (  -0.0000000  -0.0000000   0.2500000), wk =   0.0312500
        k(    3) = (   0.0000000   0.0000000  -0.5000000), wk =   0.0156250
        k(    4) = (  -0.0000000   0.2500000   0.0000000), wk =   0.0312500
        k(    5) = (  -0.0000000   0.2500000   0.2500000), wk =   0.0312500
        k(    6) = (  -0.0000000   0.2500000  -0.5000000), wk =   0.0312500
        k(    7) = (  -0.0000000   0.2500000  -0.2500000), wk =   0.0312500
        k(    8) = (   0.0000000  -0.5000000  -0.0000000), wk =   0.0156250
        k(    9) = (  -0.0000000  -0.5000000   0.2500000), wk =   0.0312500
        k(   10) = (   0.0000000  -0.5000000  -0.5000000), wk =   0.0156250
        k(   11) = (   0.2500000  -0.0000000   0.0000000), wk =   0.0312500
        k(   12) = (   0.2500000   0.0000000   0.2500000), wk =   0.0312500
        k(   13) = (   0.2500000  -0.0000000  -0.5000000), wk =   0.0312500
        k(   14) = (   0.2500000   0.0000000  -0.2500000), wk =   0.0312500
        k(   15) = (   0.2500000   0.2500000   0.0000000), wk =   0.0312500
        k(   16) = (   0.2500000   0.2500000   0.2500000), wk =   0.0312500
        k(   17) = (   0.2500000   0.2500000  -0.5000000), wk =   0.0312500
        k(   18) = (   0.2500000   0.2500000  -0.2500000), wk =   0.0312500
        k(   19) = (   0.2500000  -0.5000000   0.0000000), wk =   0.0312500
        k(   20) = (   0.2500000  -0.5000000   0.2500000), wk =   0.0312500
        k(   21) = (   0.2500000  -0.5000000  -0.5000000), wk =   0.0312500
        k(   22) = (   0.2500000  -0.5000000  -0.2500000), wk =   0.0312500
        k(   23) = (   0.2500000  -0.2500000  -0.0000000), wk =   0.0312500
        k(   24) = (   0.2500000  -0.2500000   0.2500000), wk =   0.0312500
        k(   25) = (   0.2500000  -0.2500000  -0.5000000), wk =   0.0312500
        k(   26) = (   0.2500000  -0.2500000  -0.2500000), wk =   0.0312500
        k(   27) = (  -0.5000000   0.0000000  -0.0000000), wk =   0.0156250
        k(   28) = (  -0.5000000   0.0000000   0.2500000), wk =   0.0312500
        k(   29) = (  -0.5000000  -0.0000000  -0.5000000), wk =   0.0156250
        k(   30) = (  -0.5000000   0.2500000   0.0000000), wk =   0.0312500
        k(   31) = (  -0.5000000   0.2500000   0.2500000), wk =   0.0312500
        k(   32) = (  -0.5000000   0.2500000  -0.5000000), wk =   0.0312500
        k(   33) = (  -0.5000000   0.2500000  -0.2500000), wk =   0.0312500
        k(   34) = (  -0.5000000  -0.5000000  -0.0000000), wk =   0.0156250
        k(   35) = (  -0.5000000  -0.5000000   0.2500000), wk =   0.0312500
        k(   36) = (  -0.5000000  -0.5000000  -0.5000000), wk =   0.0156250

     Dense  grid:    34569 G-vectors     FFT dimensions: (  45,  45,  45)

     Smooth grid:    12181 G-vectors     FFT dimensions: (  36,  36,  32)

     Dynamical RAM for                 wfc:       0.30 MB

     Dynamical RAM for     wfc (w. buffer):      22.11 MB

     Dynamical RAM for           str. fact:       1.05 MB

     Dynamical RAM for           local pot:       0.00 MB

     Dynamical RAM for          nlocal pot:       0.61 MB

     Dynamical RAM for                qrad:       3.52 MB

     Dynamical RAM for          rho,v,vnew:       7.34 MB

     Dynamical RAM for               rhoin:       2.45 MB

     Dynamical RAM for            rho*nmix:      16.88 MB

     Dynamical RAM for           G-vectors:       2.07 MB

     Dynamical RAM for          h,s,v(r/c):       0.03 MB

     Dynamical RAM for          <psi|beta>:       0.01 MB

     Dynamical RAM for                 psi:       0.61 MB

     Dynamical RAM for                hpsi:       0.61 MB

     Dynamical RAM for                spsi:       0.61 MB

     Dynamical RAM for      wfcinit/wfcrot:       0.61 MB

     Dynamical RAM for           addusdens:      99.17 MB

     Dynamical RAM for          addusforce:      99.17 MB

     Dynamical RAM for         addusstress:     106.81 MB

     Estimated static dynamical RAM per process >      44.89 MB

     Estimated max dynamical RAM per process >     168.59 MB
     Generating pointlists ...
     new r_m :   0.2792 (alat units)  1.8158 (a.u.) for type    1
     new r_m :   0.2792 (alat units)  1.8158 (a.u.) for type    2

     Initial potential from superposition of free atoms

     starting charge      17.9955, renormalised to      18.0000
     Starting wfcs are   13 randomized atomic wfcs
 
 ==========================================
 * initializing SIRIUS simulation context *
 ==========================================

     total cpu time spent up to now is        8.7 secs

     per-process dynamical memory:   845.5 Mb
 
 ============================
 * running SCF ground state *
 ============================

!    total energy              =    -162.77983951 Ry
     estimated scf accuracy    <          0.0E+00 Ry
     smearing contrib. (-TS)   =       0.00041489 Ry
     internal energy E=F+TS    =    -162.78025440 Ry

     The total energy is F=E-TS. E is the sum of the following terms:
     one-electron contribution =     -29.75452869 Ry
     hartree contribution      =      32.44823508 Ry
     xc contribution           =     -49.63837181 Ry
     ewald contribution        =    -106.71453401 Ry
     scf correction            =       0.00001637 Ry
     one-center paw contrib.   =      -9.12107135 Ry
      -> PAW hartree energy AE =       0.00000000 Ry
      -> PAW hartree energy PS =       0.00000000 Ry
      -> PAW xc energy AE      =       0.00000000 Ry
      -> PAW xc energy PS      =       0.00000000 Ry
      -> total E_H with PAW    =      32.44823508 Ry
      -> total E_XC with PAW   =     -49.63837181 Ry
 
     Band energy sum           =       2.71170043 Ry

     total magnetization       =     0.05 Bohr mag/cell
     absolute magnetization    =     0.06 Bohr mag/cell

     convergence has been achieved in  14 iterations

 ------ SPIN UP ------------


          k = 0.0000 0.0000 0.0000 (  1485 PWs)   bands (ev):

    -8.6949   1.5173   1.5383   1.5715   1.7729   1.7859   6.8536   6.9275
     6.9993   7.2305  22.2921  23.7049  23.9850

     occupation numbers 
     1.0000   1.0000   1.0000   1.0000   1.0000   1.0000   1.0000   1.0000
     1.0000   1.0000   0.0000   0.0000   0.0000

          k = 0.1791 0.1791-0.1791 (  1522 PWs)   bands (ev):

    -8.3938   1.2888   1.3850   1.4369   1.7815   1.7885   4.8464   7.4038
     7.4416  10.2301  17.7176  20.6791  20.9467

     occupation numbers 
     1.0000   1.0000   1.0000   1.0000   1.0000   1.0000   1.0000   1.0000
     1.0000   0.0000   0.0000   0.0000   0.0000

          k =-0.3582-0.3582 0.3582 (  1528 PWs)   bands (ev):

    -8.0649   0.8695   1.0745   1.1214   1.9923   2.0149   4.4776   7.9005
     7.9327  12.1167  14.5717  18.8817  19.1451

     occupation numbers 
     1.0000   1.0000   1.0000   1.0000   1.0000   1.0000   1.0000   1.0528
     0.9772   0.0000   0.0000   0.0000   0.0000

          k = 0.1745-0.1745 0.1745 (  1523 PWs)   bands (ev):

    -8.4130   1.2762   1.3934   1.4096   1.7979   1.8107   4.7530   7.4511
     7.4740  10.2046  17.3998  21.0358  21.2920

     occupation numbers 
     1.0000   1.0000   1.0000   1.0000   1.0000   1.0000   1.0000   1.0000
     1.0000   0.0000   0.0000   0.0000   0.0000

          k = 0.3536 0.0047-0.0047 (  1526 PWs)   bands (ev):

    -8.3679   1.3351   1.3590   1.7482   1.7634   1.8868   5.2272   6.5789
     6.6785  11.0575  17.9051  19.5946  20.7536

     occupation numbers 
     1.0000   1.0000   1.0000   1.0000   1.0000   1.0000   1.0000   1.0000
     1.0000   0.0000   0.0000   0.0000   0.0000

          k =-0.1838-0.5327 0.5327 (  1528 PWs)   bands (ev):

    -8.1161   1.1994   1.4406   1.5242   1.9369   2.0526   4.6808   6.4130
     7.0330  12.7616  15.0415  17.2967  19.7983

     occupation numbers 
     1.0000   1.0000   1.0000   1.0000   1.0000   1.0000   1.0000   1.0000
     1.0000   0.0000   0.0000   0.0000   0.0000

          k =-0.0047-0.3536 0.3536 (  1525 PWs)   bands (ev):

    -8.1605   1.1274   1.2608   1.4287   1.8410   2.0418   4.8477   6.1521
     7.8424  12.6191  15.7618  16.9157  20.0350

     occupation numbers 
     1.0000   1.0000   1.0000   1.0000   1.0000   1.0000   1.0000   1.0000
     1.0805   0.0000   0.0000   0.0000   0.0000

          k =-0.3489 0.3489-0.3489 (  1508 PWs)   bands (ev):

    -8.1053   0.8706   1.1043   1.1459   1.9698   1.9948   4.3065   7.9249
     7.9605  12.2617  14.3013  19.3305  19.5806

     occupation numbers 
     1.0000   1.0000   1.0000   1.0000   1.0000   1.0000   1.0000   1.0001
     0.8715   0.0000   0.0000   0.0000   0.0000

          k =-0.1698 0.5280-0.5280 (  1529 PWs)   bands (ev):

    -8.1363   1.2244   1.4584   1.5219   1.9410   2.0261   4.5683   6.4132
     7.0478  12.7191  15.3466  17.1754  19.9742

     occupation numbers 
     1.0000   1.0000   1.0000   1.0000   1.0000   1.0000   1.0000   1.0000
     1.0000   0.0000   0.0000   0.0000   0.0000

          k =-0.7071-0.0093 0.0093 (  1542 PWs)   bands (ev):

    -8.1641   1.1790   1.9836   2.0938   2.1130   2.2870   4.2238   5.9956
     6.1203  11.3046  15.9001  18.5867  20.3017

     occupation numbers 
     1.0000   1.0000   1.0000   1.0000   1.0000   1.0000   1.0000   1.0000
     1.0000   0.0000   0.0000   0.0000   0.0000

          k =-0.1768 0.1768 0.1768 (  1522 PWs)   bands (ev):

    -8.4033   1.2964   1.3638   1.4253   1.7941   1.7981   4.8089   7.4162
     7.4685  10.2227  17.5322  20.7514  21.2187

     occupation numbers 
     1.0000   1.0000   1.0000   1.0000   1.0000   1.0000   1.0000   1.0000
     1.0000   0.0000   0.0000   0.0000   0.0000

          k = 0.0023 0.3559-0.0023 (  1523 PWs)   bands (ev):

    -8.3592   1.2885   1.3767   1.7390   1.7554   1.8958   5.2244   6.5738
     6.7055  11.1090  18.0092  19.6220  20.5310

     occupation numbers 
     1.0000   1.0000   1.0000   1.0000   1.0000   1.0000   1.0000   1.0000
     1.0000   0.0000   0.0000   0.0000   0.0000

          k =-0.5350-0.1815 0.5350 (  1532 PWs)   bands (ev):

    -8.1140   1.2375   1.4600   1.4897   1.9274   2.0523   4.6710   6.4653
     6.9585  12.7386  15.2217  17.2441  19.5759

     occupation numbers 
     1.0000   1.0000   1.0000   1.0000   1.0000   1.0000   1.0000   1.0000
     1.0000   0.0000   0.0000   0.0000   0.0000

          k =-0.3559-0.0023 0.3559 (  1523 PWs)   bands (ev):

    -8.1570   1.1674   1.2415   1.4382   1.8374   2.0543   4.9065   6.1144
     7.8129  12.6106  15.6485  17.0496  19.7616

     occupation numbers 
     1.0000   1.0000   1.0000   1.0000   1.0000   1.0000   1.0000   1.0000
     1.0648   0.0000   0.0000   0.0000   0.0000

          k =-0.0023 0.0023 0.3512 (  1526 PWs)   bands (ev):

    -8.3768   1.3341   1.3769   1.7577   1.7696   1.8857   5.2415   6.5517
     6.6741  11.0089  17.7839  19.6684  20.7715

     occupation numbers 
     1.0000   1.0000   1.0000   1.0000   1.0000   1.0000   1.0000   1.0000
     1.0000   0.0000   0.0000   0.0000   0.0000

          k = 0.1768 0.1814 0.1721 (  1516 PWs)   bands (ev):

    -8.4031   1.2742   1.3967   1.4273   1.7855   1.8012   4.8014   7.4175
     7.4672  10.2145  17.5638  20.9651  20.9960

     occupation numbers 
     1.0000   1.0000   1.0000   1.0000   1.0000   1.0000   1.0000   1.0000
     1.0000   0.0000   0.0000   0.0000   0.0000

          k =-0.3606-0.3559 0.7095 (  1531 PWs)   bands (ev):

    -8.1443   1.1284   1.2173   1.4146   1.8425   2.0524   4.8675   6.2050
     7.8571  12.6593  15.6951  16.8551  19.9420

     occupation numbers 
     1.0000   1.0000   1.0000   1.0000   1.0000   1.0000   1.0000   1.0000
     1.0833   0.0000   0.0000   0.0000   0.0000

          k =-0.1814-0.1768 0.5303 (  1532 PWs)   bands (ev):

    -8.1201   1.2047   1.4387   1.5205   1.9390   2.0429   4.6921   6.4159
     7.0178  12.7093  15.1807  17.1844  19.7688

     occupation numbers 
     1.0000   1.0000   1.0000   1.0000   1.0000   1.0000   1.0000   1.0000
     1.0000   0.0000   0.0000   0.0000   0.0000

          k =-0.5257 0.5257-0.1721 (  1531 PWs)   bands (ev):

    -8.1399   1.2040   1.4693   1.5139   1.9501   2.0272   4.5684   6.3992
     7.0785  12.7271  15.1945  17.2496  20.1613

     occupation numbers 
     1.0000   1.0000   1.0000   1.0000   1.0000   1.0000   1.0000   1.0000
     1.0000   0.0000   0.0000   0.0000   0.0000

          k =-0.3466 0.7048-0.3512 (  1532 PWs)   bands (ev):

    -8.1772   1.1299   1.3077   1.4506   1.8407   2.0313   4.8190   6.0946
     7.8258  12.5759  15.8465  16.9611  20.1115

     occupation numbers 
     1.0000   1.0000   1.0000   1.0000   1.0000   1.0000   1.0000   1.0000
     1.0728   0.0000   0.0000   0.0000   0.0000

          k =-0.8839 0.1674 0.1861 (  1524 PWs)   bands (ev):

    -8.1259   1.2186   1.4540   1.5118   1.9397   2.0385   4.6214   6.4296
     7.0282  12.7408  15.1971  17.2286  19.8844

     occupation numbers 
     1.0000   1.0000   1.0000   1.0000   1.0000   1.0000   1.0000   1.0000
     1.0000   0.0000   0.0000   0.0000   0.0000

          k =-0.7048 0.3466 0.0070 (  1540 PWs)   bands (ev):

    -8.0907   1.3852   1.4567   1.4884   2.0955   2.2111   5.3945   5.4182
     6.2472  13.2594  16.1640  16.4309  18.0043

     occupation numbers 
     1.0000   1.0000   1.0000   1.0000   1.0000   1.0000   1.0000   1.0000
     1.0000   0.0000   0.0000   0.0000   0.0000

          k =-0.3512 0.3512 0.0023 (  1531 PWs)   bands (ev):

    -8.1648   1.0903   1.2632   1.4274   1.8492   2.0269   4.8076   6.1816
     7.8768  12.6217  15.8841  16.7641  20.2561

     occupation numbers 
     1.0000   1.0000   1.0000   1.0000   1.0000   1.0000   1.0000   1.0000
     1.0780   0.0000   0.0000   0.0000   0.0000

          k =-0.1721 0.5303-0.1768 (  1530 PWs)   bands (ev):

    -8.1338   1.2256   1.4588   1.5328   1.9342   2.0354   4.5552   6.4050
     7.0533  12.7565  15.2226  17.3171  19.9924

     occupation numbers 
     1.0000   1.0000   1.0000   1.0000   1.0000   1.0000   1.0000   1.0000
     1.0000   0.0000   0.0000   0.0000   0.0000

          k =-0.7095-0.0070 0.3606 (  1535 PWs)   bands (ev):

    -8.0974   1.4173   1.4954   1.5340   2.1113   2.2347   5.2776   5.3290
     6.3076  13.1858  16.2645  16.5218  17.8187

     occupation numbers 
     1.0000   1.0000   1.0000   1.0000   1.0000   1.0000   1.0000   1.0000
     1.0000   0.0000   0.0000   0.0000   0.0000

          k =-0.5303 0.1721 0.1814 (  1527 PWs)   bands (ev):

    -8.1260   1.2166   1.4470   1.5126   1.9369   2.0377   4.6386   6.4251
     7.0321  12.7419  15.1808  17.2304  19.8791

     occupation numbers 
     1.0000   1.0000   1.0000   1.0000   1.0000   1.0000   1.0000   1.0000
     1.0000   0.0000   0.0000   0.0000   0.0000

          k = 0.3536-0.3536-0.3536 (  1516 PWs)   bands (ev):

    -8.0849   0.8714   1.0737   1.1353   1.9888   1.9962   4.4046   7.9191
     7.9584  12.1692  14.4362  19.0022  19.4396

     occupation numbers 
     1.0000   1.0000   1.0000   1.0000   1.0000   1.0000   1.0000   1.0152
     0.8805   0.0000   0.0000   0.0000   0.0000

          k = 0.5327-0.1744-0.5327 (  1535 PWs)   bands (ev):

    -8.1239   1.2500   1.4600   1.4900   1.9272   2.0379   4.6314   6.4603
     6.9713  12.7228  15.3547  17.1842  19.6556

     occupation numbers 
     1.0000   1.0000   1.0000   1.0000   1.0000   1.0000   1.0000   1.0000
     1.0000   0.0000   0.0000   0.0000   0.0000

          k =-0.0047-0.7118 0.0047 (  1544 PWs)   bands (ev):

    -8.1598   1.1899   2.0055   2.0973   2.1126   2.2971   4.2076   5.9491
     6.1224  11.3073  15.9939  18.6133  20.0601

     occupation numbers 
     1.0000   1.0000   1.0000   1.0000   1.0000   1.0000   1.0000   1.0000
     1.0000   0.0000   0.0000   0.0000   0.0000

          k = 0.5280-0.5280-0.1791 (  1524 PWs)   bands (ev):

    -8.1296   1.1897   1.4555   1.5138   1.9457   2.0400   4.6413   6.3951
     7.0751  12.7536  15.0235  17.3107  20.0641

     occupation numbers 
     1.0000   1.0000   1.0000   1.0000   1.0000   1.0000   1.0000   1.0000
     1.0000   0.0000   0.0000   0.0000   0.0000

          k = 0.7071-0.3489-0.3582 (  1530 PWs)   bands (ev):

    -8.1600   1.1291   1.2502   1.4277   1.8414   2.0429   4.8639   6.1500
     7.8461  12.6171  15.7703  16.8859  20.0239

     occupation numbers 
     1.0000   1.0000   1.0000   1.0000   1.0000   1.0000   1.0000   1.0000
     1.0817   0.0000   0.0000   0.0000   0.0000

          k = 0.1698-0.8862 0.1791 (  1528 PWs)   bands (ev):

    -8.1234   1.2123   1.4512   1.5332   1.9329   2.0488   4.6115   6.4067
     7.0453  12.7789  15.0756  17.3688  19.9011

     occupation numbers 
     1.0000   1.0000   1.0000   1.0000   1.0000   1.0000   1.0000   1.0000
     1.0000   0.0000   0.0000   0.0000   0.0000

          k = 0.3489-0.7071 0.0000 (  1537 PWs)   bands (ev):

    -8.0955   1.4024   1.4803   1.5195   2.1031   2.2231   5.3100   5.3758
     6.2802  13.2187  16.2766  16.4424  17.8898

     occupation numbers 
     1.0000   1.0000   1.0000   1.0000   1.0000   1.0000   1.0000   1.0000
     1.0000   0.0000   0.0000   0.0000   0.0000

          k = 0.0047-0.0047-0.7025 (  1544 PWs)   bands (ev):

    -8.1713   1.1709   1.9789   2.0961   2.1076   2.2787   4.2338   5.9877
     6.1444  11.2787  15.8423  18.6526  20.3146

     occupation numbers 
     1.0000   1.0000   1.0000   1.0000   1.0000   1.0000   1.0000   1.0000
     1.0000   0.0000   0.0000   0.0000   0.0000

          k = 0.1838 0.1745-0.8816 (  1532 PWs)   bands (ev):

    -8.1298   1.2169   1.4471   1.5200   1.9419   2.0299   4.6355   6.4178
     7.0247  12.6905  15.3398  17.1117  19.8535

     occupation numbers 
     1.0000   1.0000   1.0000   1.0000   1.0000   1.0000   1.0000   1.0000
     1.0000   0.0000   0.0000   0.0000   0.0000

          k =-0.3536-0.3629-0.3442 (  1514 PWs)   bands (ev):

    -8.0844   0.8718   1.0704   1.1543   1.9699   2.0136   4.3930   7.9159
     7.9431  12.1874  14.4366  19.2241  19.2429

     occupation numbers 
     1.0000   1.0000   1.0000   1.0000   1.0000   1.0000   1.0000   1.0230
     0.9417   0.0000   0.0000   0.0000   0.0000

 ------ SPIN DOWN ----------


          k = 0.0000 0.0000 0.0000 (  1485 PWs)   bands (ev):

    -8.6243   1.5186   1.5399   1.5732   1.7821   1.7920   6.9240   7.0050
     7.0769   7.2409  22.2788  23.7025  23.9832

     occupation numbers 
     1.0000   1.0000   1.0000   1.0000   1.0000   1.0000   1.0000   1.0000
     1.0000   1.0000   0.0000   0.0000   0.0000

          k = 0.1791 0.1791-0.1791 (  1522 PWs)   bands (ev):

    -8.3199   1.2955   1.3922   1.4447   1.7855   1.7917   4.8881   7.4702
     7.5126  10.2707  17.7238  20.6758  20.9438

     occupation numbers 
     1.0000   1.0000   1.0000   1.0000   1.0000   1.0000   1.0000   1.0000
     1.0000   0.0000   0.0000   0.0000   0.0000

          k =-0.3582-0.3582 0.3582 (  1528 PWs)   bands (ev):

    -7.9870   0.8773   1.0859   1.1330   1.9958   2.0179   4.5129   7.9660
     8.0030  12.1167  14.6221  18.8762  19.1401

     occupation numbers 
     1.0000   1.0000   1.0000   1.0000   1.0000   1.0000   1.0000   0.8463
     0.6557   0.0000   0.0000   0.0000   0.0000

          k = 0.1745-0.1745 0.1745 (  1523 PWs)   bands (ev):

    -8.3392   1.2812   1.4003   1.4185   1.8025   1.8143   4.7872   7.5215
     7.5558  10.2389  17.4044  21.0326  21.2902

     occupation numbers 
     1.0000   1.0000   1.0000   1.0000   1.0000   1.0000   1.0000   1.0000
     1.0001   0.0000   0.0000   0.0000   0.0000

          k = 0.3536 0.0047-0.0047 (  1526 PWs)   bands (ev):

    -8.2938   1.3485   1.3604   1.7510   1.7660   1.8941   5.2617   6.6555
     6.7396  11.1035  17.9016  19.5876  20.7588

     occupation numbers 
     1.0000   1.0000   1.0000   1.0000   1.0000   1.0000   1.0000   1.0000
     1.0000   0.0000   0.0000   0.0000   0.0000

          k =-0.1838-0.5327 0.5327 (  1528 PWs)   bands (ev):

    -8.0392   1.2038   1.4505   1.5343   1.9437   2.0556   4.7238   6.4644
     7.0967  12.7866  15.0566  17.3111  19.8056

     occupation numbers 
     1.0000   1.0000   1.0000   1.0000   1.0000   1.0000   1.0000   1.0000
     1.0000   0.0000   0.0000   0.0000   0.0000

          k =-0.0047-0.3536 0.3536 (  1525 PWs)   bands (ev):

    -8.0838   1.1370   1.2731   1.4320   1.8428   2.0484   4.8816   6.2136
     7.9114  12.6582  15.7633  16.9296  20.0334

     occupation numbers 
     1.0000   1.0000   1.0000   1.0000   1.0000   1.0000   1.0000   1.0000
     1.0329   0.0000   0.0000   0.0000   0.0000

          k =-0.3489 0.3489-0.3489 (  1508 PWs)   bands (ev):

    -8.0276   0.8769   1.1164   1.1572   1.9736   1.9980   4.3338   7.9919
     8.0441  12.2618  14.3445  19.3253  19.5763

     occupation numbers 
     1.0000   1.0000   1.0000   1.0000   1.0000   1.0000   1.0000   0.7162
     0.4318   0.0000   0.0000   0.0000   0.0000

          k =-0.1698 0.5280-0.5280 (  1529 PWs)   bands (ev):

    -8.0594   1.2287   1.4679   1.5315   1.9485   2.0292   4.6022   6.4760
     7.1119  12.7426  15.3658  17.1851  19.9820

     occupation numbers 
     1.0000   1.0000   1.0000   1.0000   1.0000   1.0000   1.0000   1.0000
     1.0000   0.0000   0.0000   0.0000   0.0000

          k =-0.7071-0.0093 0.0093 (  1542 PWs)   bands (ev):

    -8.0880   1.1799   1.9913   2.0961   2.1149   2.3003   4.2677   6.0664
     6.1767  11.3018  15.9387  18.5809  20.3156

     occupation numbers 
     1.0000   1.0000   1.0000   1.0000   1.0000   1.0000   1.0000   1.0000
     1.0000   0.0000   0.0000   0.0000   0.0000

          k =-0.1768 0.1768 0.1768 (  1522 PWs)   bands (ev):

    -8.3295   1.3011   1.3704   1.4357   1.7980   1.8017   4.8442   7.4802
     7.5541  10.2581  17.5366  20.7482  21.2167

     occupation numbers 
     1.0000   1.0000   1.0000   1.0000   1.0000   1.0000   1.0000   1.0000
     1.0001   0.0000   0.0000   0.0000   0.0000

          k = 0.0023 0.3559-0.0023 (  1523 PWs)   bands (ev):

    -8.2850   1.3037   1.3786   1.7415   1.7580   1.9019   5.2611   6.6384
     6.7728  11.1587  18.0058  19.6145  20.5374

     occupation numbers 
     1.0000   1.0000   1.0000   1.0000   1.0000   1.0000   1.0000   1.0000
     1.0000   0.0000   0.0000   0.0000   0.0000

          k =-0.5350-0.1815 0.5350 (  1532 PWs)   bands (ev):

    -8.0370   1.2415   1.4714   1.4986   1.9346   2.0550   4.7147   6.5190
     7.0180  12.7642  15.2373  17.2595  19.5827

     occupation numbers 
     1.0000   1.0000   1.0000   1.0000   1.0000   1.0000   1.0000   1.0000
     1.0000   0.0000   0.0000   0.0000   0.0000

          k =-0.3559-0.0023 0.3559 (  1523 PWs)   bands (ev):

    -8.0803   1.1771   1.2525   1.4414   1.8391   2.0619   4.9411   6.1805
     7.8773  12.6479  15.6500  17.0647  19.7594

     occupation numbers 
     1.0000   1.0000   1.0000   1.0000   1.0000   1.0000   1.0000   1.0000
     1.0777   0.0000   0.0000   0.0000   0.0000

          k =-0.0023 0.0023 0.3512 (  1526 PWs)   bands (ev):

    -8.3027   1.3375   1.3852   1.7605   1.7727   1.8947   5.2718   6.6196
     6.7543  11.0484  17.7799  19.6615  20.7779

     occupation numbers 
     1.0000   1.0000   1.0000   1.0000   1.0000   1.0000   1.0000   1.0000
     1.0000   0.0000   0.0000   0.0000   0.0000

          k = 0.1768 0.1814 0.1721 (  1516 PWs)   bands (ev):

    -8.3292   1.2807   1.4042   1.4344   1.7899   1.8046   4.8401   7.4878
     7.5400  10.2526  17.5696  20.9625  20.9929

     occupation numbers 
     1.0000   1.0000   1.0000   1.0000   1.0000   1.0000   1.0000   1.0000
     1.0000   0.0000   0.0000   0.0000   0.0000

          k =-0.3606-0.3559 0.7095 (  1531 PWs)   bands (ev):

    -8.0675   1.1386   1.2313   1.4177   1.8443   2.0580   4.9069   6.2575
     7.9254  12.7029  15.6978  16.8658  19.9407

     occupation numbers 
     1.0000   1.0000   1.0000   1.0000   1.0000   1.0000   1.0000   1.0000
     0.9986   0.0000   0.0000   0.0000   0.0000

          k =-0.1814-0.1768 0.5303 (  1532 PWs)   bands (ev):

    -8.0431   1.2098   1.4475   1.5307   1.9455   2.0462   4.7323   6.4724
     7.0810  12.7316  15.1980  17.1974  19.7763

     occupation numbers 
     1.0000   1.0000   1.0000   1.0000   1.0000   1.0000   1.0000   1.0000
     1.0000   0.0000   0.0000   0.0000   0.0000

          k =-0.5257 0.5257-0.1721 (  1531 PWs)   bands (ev):

    -8.0630   1.2077   1.4775   1.5258   1.9564   2.0307   4.6017   6.4516
     7.1565  12.7496  15.2108  17.2583  20.1714

     occupation numbers 
     1.0000   1.0000   1.0000   1.0000   1.0000   1.0000   1.0000   1.0000
     1.0000   0.0000   0.0000   0.0000   0.0000

          k =-0.3466 0.7048-0.3512 (  1532 PWs)   bands (ev):

    -8.1007   1.1386   1.3190   1.4538   1.8424   2.0390   4.8506   6.1601
     7.8960  12.6124  15.8474  16.9767  20.1098

     occupation numbers 
     1.0000   1.0000   1.0000   1.0000   1.0000   1.0000   1.0000   1.0000
     1.0594   0.0000   0.0000   0.0000   0.0000

          k =-0.8839 0.1674 0.1861 (  1524 PWs)   bands (ev):

    -8.0489   1.2227   1.4642   1.5216   1.9467   2.0416   4.6610   6.4829
     7.0944  12.7659  15.2131  17.2408  19.8927

     occupation numbers 
     1.0000   1.0000   1.0000   1.0000   1.0000   1.0000   1.0000   1.0000
     1.0000   0.0000   0.0000   0.0000   0.0000

          k =-0.7048 0.3466 0.0070 (  1540 PWs)   bands (ev):

    -8.0135   1.3997   1.4598   1.4918   2.0977   2.2214   5.4452   5.4645
     6.2995  13.2858  16.1849  16.4551  18.0049

     occupation numbers 
     1.0000   1.0000   1.0000   1.0000   1.0000   1.0000   1.0000   1.0000
     1.0000   0.0000   0.0000   0.0000   0.0000

          k =-0.3512 0.3512 0.0023 (  1531 PWs)   bands (ev):

    -8.0882   1.0986   1.2790   1.4305   1.8511   2.0323   4.8395   6.2336
     7.9600  12.6597  15.8851  16.7750  20.2555

     occupation numbers 
     1.0000   1.0000   1.0000   1.0000   1.0000   1.0000   1.0000   1.0000
     0.8736   0.0000   0.0000   0.0000   0.0000

          k =-0.1721 0.5303-0.1768 (  1530 PWs)   bands (ev):

    -8.0569   1.2293   1.4695   1.5418   1.9420   2.0383   4.5903   6.4642
     7.1190  12.7813  15.2401  17.3283  19.9998

     occupation numbers 
     1.0000   1.0000   1.0000   1.0000   1.0000   1.0000   1.0000   1.0000
     1.0000   0.0000   0.0000   0.0000   0.0000

          k =-0.7095-0.0070 0.3606 (  1535 PWs)   bands (ev):

    -8.0203   1.4246   1.4986   1.5396   2.1131   2.2482   5.3368   5.3791
     6.3502  13.2055  16.2873  16.5505  17.8193

     occupation numbers 
     1.0000   1.0000   1.0000   1.0000   1.0000   1.0000   1.0000   1.0000
     1.0000   0.0000   0.0000   0.0000   0.0000

          k =-0.5303 0.1721 0.1814 (  1527 PWs)   bands (ev):

    -8.0491   1.2206   1.4559   1.5239   1.9439   2.0407   4.6744   6.4838
     7.0980  12.7648  15.1980  17.2416  19.8873

     occupation numbers 
     1.0000   1.0000   1.0000   1.0000   1.0000   1.0000   1.0000   1.0000
     1.0000   0.0000   0.0000   0.0000   0.0000

          k = 0.3536-0.3536-0.3536 (  1516 PWs)   bands (ev):

    -8.0071   0.8780   1.0830   1.1497   1.9918   2.0000   4.4337   7.9824
     8.0432  12.1688  14.4799  18.9967  19.4351

     occupation numbers 
     1.0000   1.0000   1.0000   1.0000   1.0000   1.0000   1.0000   0.7660
     0.4368   0.0000   0.0000   0.0000   0.0000

          k = 0.5327-0.1744-0.5327 (  1535 PWs)   bands (ev):

    -8.0469   1.2536   1.4701   1.5000   1.9350   2.0406   4.6678   6.5235
     7.0308  12.7463  15.3731  17.1962  19.6626

     occupation numbers 
     1.0000   1.0000   1.0000   1.0000   1.0000   1.0000   1.0000   1.0000
     1.0000   0.0000   0.0000   0.0000   0.0000

          k =-0.0047-0.7118 0.0047 (  1544 PWs)   bands (ev):

    -8.0836   1.1909   2.0118   2.0993   2.1145   2.3115   4.2558   6.0085
     6.1847  11.3046  16.0359  18.6067  20.0760

     occupation numbers 
     1.0000   1.0000   1.0000   1.0000   1.0000   1.0000   1.0000   1.0000
     1.0000   0.0000   0.0000   0.0000   0.0000

          k = 0.5280-0.5280-0.1791 (  1524 PWs)   bands (ev):

    -8.0527   1.1936   1.4637   1.5263   1.9517   2.0434   4.6762   6.4456
     7.1528  12.7753  15.0388  17.3208  20.0739

     occupation numbers 
     1.0000   1.0000   1.0000   1.0000   1.0000   1.0000   1.0000   1.0000
     1.0000   0.0000   0.0000   0.0000   0.0000

          k = 0.7071-0.3489-0.3582 (  1530 PWs)   bands (ev):

    -8.0833   1.1387   1.2627   1.4310   1.8432   2.0493   4.8970   6.2110
     7.9174  12.6549  15.7717  16.8995  20.0225

     occupation numbers 
     1.0000   1.0000   1.0000   1.0000   1.0000   1.0000   1.0000   1.0000
     1.0194   0.0000   0.0000   0.0000   0.0000

          k = 0.1698-0.8862 0.1791 (  1528 PWs)   bands (ev):

    -8.0465   1.2161   1.4626   1.5421   1.9401   2.0517   4.6521   6.4587
     7.1109  12.8049  15.0909  17.3824  19.9083

     occupation numbers 
     1.0000   1.0000   1.0000   1.0000   1.0000   1.0000   1.0000   1.0000
     1.0000   0.0000   0.0000   0.0000   0.0000

          k = 0.3489-0.7071 0.0000 (  1537 PWs)   bands (ev):

    -8.0183   1.4126   1.4831   1.5252   2.1052   2.2347   5.3666   5.4206
     6.3296  13.2423  16.2969  16.4695  17.8903

     occupation numbers 
     1.0000   1.0000   1.0000   1.0000   1.0000   1.0000   1.0000   1.0000
     1.0000   0.0000   0.0000   0.0000   0.0000

          k = 0.0047-0.0047-0.7025 (  1544 PWs)   bands (ev):

    -8.0952   1.1717   1.9888   2.0984   2.1097   2.2900   4.2706   6.0507
     6.2189  11.2755  15.8750  18.6472  20.3304

     occupation numbers 
     1.0000   1.0000   1.0000   1.0000   1.0000   1.0000   1.0000   1.0000
     1.0000   0.0000   0.0000   0.0000   0.0000

          k = 0.1838 0.1745-0.8816 (  1532 PWs)   bands (ev):

    -8.0529   1.2219   1.4562   1.5294   1.9487   2.0333   4.6721   6.4785
     7.0882  12.7126  15.3592  17.1222  19.8613

     occupation numbers 
     1.0000   1.0000   1.0000   1.0000   1.0000   1.0000   1.0000   1.0000
     1.0000   0.0000   0.0000   0.0000   0.0000

          k =-0.3536-0.3629-0.3442 (  1514 PWs)   bands (ev):

    -8.0066   0.8789   1.0834   1.1643   1.9736   2.0166   4.4249   7.9876
     8.0131  12.1875  14.4844  19.2189  19.2380

     occupation numbers 
     1.0000   1.0000   1.0000   1.0000   1.0000   1.0000   1.0000   0.7393
     0.6000   0.0000   0.0000   0.0000   0.0000

     the Fermi energy is     8.0503 ev

     Forces acting on atoms (cartesian axes, Ry/au):

     atom    1 type  1   force =     0.00183780   -0.00653206   -0.00059978
     atom    2 type  2   force =    -0.00183780    0.00653206    0.00059978
     The non-local contrib.  to forces
     atom    1 type  1   force =     0.03018227   -0.07865615   -0.01134935
     atom    2 type  2   force =     0.03387906   -0.08394068   -0.01277393
     The ionic contribution  to forces
     atom    1 type  1   force =     0.22087019   -0.56112714   -0.07784414
     atom    2 type  2   force =    -0.22087019    0.56112714    0.07784414
     The local contribution  to forces
     atom    1 type  1   force =    -0.24718485    0.62789360    0.08782460
     atom    2 type  2   force =     0.18548379   -0.47146154   -0.06459640
     The core correction contribution to forces
     atom    1 type  1   force =    -0.00203171    0.00536090    0.00076918
     atom    2 type  2   force =    -0.00033334    0.00081358    0.00012729
     The Hubbard contrib.    to forces
     atom    1 type  1   force =     0.00000000    0.00000000    0.00000000
     atom    2 type  2   force =     0.00000000    0.00000000    0.00000000
     The SCF correction term to forces
     atom    1 type  1   force =    -0.00000337    0.00000866    0.00000177
     atom    2 type  2   force =    -0.00000239    0.00000548    0.00000054

     Total force =     0.009634     Total SCF correction =     0.000011


     Computing stress (Cartesian axis) and pressure

          total   stress  (Ry/bohr**3)                   (kbar)     P=     -115.69
  -0.00080672   0.00006482  -0.00006226         -118.67        9.54       -9.16
   0.00006482  -0.00074747   0.00000099            9.54     -109.96        0.15
  -0.00006226   0.00000099  -0.00080515           -9.16        0.15     -118.44

     kinetic stress (kbar)  28370.22      3.22    -10.59
                                3.22  28338.88      2.76
                              -10.59      2.76  28406.62

     local   stress (kbar)    203.11     50.86   -184.60
                               50.86   -716.90     58.88
                             -184.60     58.88    923.17

     nonloc. stress (kbar)  -3269.99      0.22      0.82
                                0.22  -3262.91     -0.48
                                0.82     -0.48  -3273.29

     hartree stress (kbar)   8156.02    -23.32     74.07
                              -23.32   8476.55    -21.94
                               74.07    -21.94   7894.65

     exc-cor stress (kbar)  13017.91     -0.10      0.18
                               -0.10  13018.59     -0.04
                                0.18     -0.04  13017.42

     corecor stress (kbar) -19660.79      0.10     -0.15
                                0.10 -19661.09      0.02
                               -0.15      0.02 -19661.06

     ewald   stress (kbar) -26935.16    -21.45    111.11
                              -21.45 -26303.07    -39.05
                              111.11    -39.05 -27425.95

     hubbard stress (kbar)      0.00      0.00      0.00
                                0.00      0.00      0.00
                                0.00      0.00      0.00

     DFT-D   stress (kbar)      0.00      0.00      0.00
                                0.00      0.00      0.00
                                0.00      0.00      0.00

     XDM     stress (kbar)      0.00      0.00      0.00
                                0.00      0.00      0.00
                                0.00      0.00      0.00

     dft-nl  stress (kbar)      0.00      0.00      0.00
                                0.00      0.00      0.00
                                0.00      0.00      0.00

     TS-vdW  stress (kbar)      0.00      0.00      0.00
                                0.00      0.00      0.00
                                0.00      0.00      0.00

     MDB     stress (kbar)      0.00      0.00      0.00
                                0.00      0.00      0.00
                                0.00      0.00      0.00

     3D-RISM stress (kbar)      0.00      0.00      0.00
                                0.00      0.00      0.00
                                0.00      0.00      0.00


     Writing all to output data dir ./out/CdO.save/

     init_run     :     11.86s CPU      2.54s WALL (       1 calls)
     electrons    :    752.98s CPU     56.15s WALL (       1 calls)
     forces       :      4.02s CPU      0.26s WALL (       1 calls)
     stress       :     12.75s CPU      1.07s WALL (       1 calls)

     Called by init_run:
     wfcinit      :      0.08s CPU      0.01s WALL (       1 calls)
     potinit      :      4.87s CPU      0.69s WALL (       1 calls)
     hinit0       :      6.41s CPU      1.45s WALL (       1 calls)

     Called by electrons:
     v_of_rho     :      0.62s CPU      0.05s WALL (       1 calls)
     v_h          :      0.06s CPU      0.00s WALL (       1 calls)
     v_xc         :      0.55s CPU      0.05s WALL (       1 calls)
     newd         :      0.46s CPU      0.33s WALL (       1 calls)
     PAW_pot      :      0.34s CPU      0.03s WALL (       1 calls)

     Called by c_bands:

     Called by sum_band:

     Called by *egterg:

     Called by h_psi:

     General routines
     fft          :      4.88s CPU      0.48s WALL (      25 calls)
     ffts         :      2.80s CPU      0.53s WALL (       2 calls)
     interpolate  :      2.87s CPU      0.53s WALL (       2 calls)

     Parallel routines

     PAW routines
     PAW_pot      :      0.34s CPU      0.03s WALL (       1 calls)

     PWSCF        :  13m19.62s CPU   1m 7.15s WALL


   This run was terminated on:  18:58: 8  19Oct2023            

=------------------------------------------------------------------------------=
   JOB DONE.
=------------------------------------------------------------------------------=
=============================================================================================================================================================
                                                                              #         Total          %     Self %        Median           Min           Max
-------------------------------------------------------------------------------------------------------------------------------------------------------------
sirius                                                                        1      67.15 s      100.00       0.00      67.15 s       67.15 s       67.15 s 
├ sirius::initialize                                                          1     408.67 us       0.00     100.00     408.67 us     408.67 us     408.67 us
├ PWSCF                                                                       1      67.15 s      100.00       1.87      67.15 s       67.15 s       67.15 s 
│ ├ init_run                                                                  1       2.54 s        3.78       2.06       2.54 s        2.54 s        2.54 s 
│ │ ├ hinit0                                                                  1       1.45 s        2.15       8.27       1.45 s        1.45 s        1.45 s 
│ │ │ ├ init_vloc                                                             1     257.11 ms       0.38     100.00     257.11 ms     257.11 ms     257.11 ms
│ │ │ ├ init_us_1                                                             1     603.36 ms       0.90     100.00     603.36 ms     603.36 ms     603.36 ms
│ │ │ └ fft                                                                   2     466.80 ms       0.70     100.00     233.40 ms     367.13 us     466.44 ms
│ │ ├ potinit                                                                 1     693.63 ms       1.03      12.46     693.63 ms     693.63 ms     693.63 ms
│ │ │ ├ fft                                                                   2     617.81 us       0.00     100.00     308.90 us     296.58 us     321.23 us
│ │ │ ├ v_of_rho                                                              1      50.29 ms       0.07       0.22      50.29 ms      50.29 ms      50.29 ms
│ │ │ │ ├ v_xc                                                                1      48.33 ms       0.07      87.90      48.33 ms      48.33 ms      48.33 ms
│ │ │ │ │ └ fft                                                              14       5.85 ms       0.01     100.00     380.47 us     290.46 us     660.00 us
│ │ │ │ └ v_h                                                                 1       1.85 ms       0.00      83.54       1.85 ms       1.85 ms       1.85 ms
│ │ │ │   └ fft                                                               1     304.05 us       0.00     100.00     304.05 us     304.05 us     304.05 us
│ │ │ ├ PAW_pot                                                               1      27.32 ms       0.04     100.00      27.32 ms      27.32 ms      27.32 ms
│ │ │ └ interpolate                                                           2     528.98 ms       0.79       0.26     264.49 ms       1.37 ms     527.61 ms
│ │ │   ├ fft                                                                 2       1.21 ms       0.00     100.00     603.99 us     582.74 us     625.24 us
│ │ │   └ ffts                                                                2     526.42 ms       0.78     100.00     263.21 ms     135.89 us     526.28 ms
│ │ ├ newd                                                                    1     330.30 ms       0.49      99.55     330.30 ms     330.30 ms     330.30 ms
│ │ │ └ fft                                                                   2       1.47 ms       0.00     100.00     735.64 us     649.31 us     821.97 us
│ │ └ wfcinit                                                                 1      12.88 ms       0.02     100.00      12.88 ms      12.88 ms      12.88 ms
│ ├ setup_sirius                                                              1       1.33 s        1.97       1.90       1.33 s        1.33 s        1.33 s 
│ │ ├ sirius::Simulation_context::initialize                                  1     560.49 ms       0.83       0.21     560.49 ms     560.49 ms     560.49 ms
│ │ │ ├ sirius::Simulation_context::init_comm                                 1     223.71 us       0.00     100.00     223.71 us     223.71 us     223.71 us
│ │ │ ├ sirius::Unit_cell::initialize                                         1       3.62 ms       0.01       2.77       3.62 ms       3.62 ms       3.62 ms
│ │ │ │ ├ sirius::Atom_type::init                                             2     656.48 us       0.00     100.00     328.24 us     259.42 us     397.06 us
│ │ │ │ └ sirius::Unit_cell::update                                           1       2.86 ms       0.00       0.39       2.86 ms       2.86 ms       2.86 ms
│ │ │ │   ├ sirius::Unit_cell::find_nearest_neighbours                        1     230.21 us       0.00     100.00     230.21 us     230.21 us     230.21 us
│ │ │ │   └ sirius::Unit_cell::get_symmetry                                   1       2.62 ms       0.00      30.15       2.62 ms       2.62 ms       2.62 ms
│ │ │ │     └ sirius::Crystal_symmetry                                        1       1.83 ms       0.00      30.28       1.83 ms       1.83 ms       1.83 ms
│ │ │ │       ├ sirius::Crystal_symmetry|spg                                  1       1.21 ms       0.00     100.00       1.21 ms       1.21 ms       1.21 ms
│ │ │ │       ├ sirius::find_sym_atom                                         2       8.61 us       0.00     100.00       4.31 us       1.97 us       6.64 us
│ │ │ │       └ sirius::Crystal_symmetry|mag                                  1      52.54 us       0.00     100.00      52.54 us      52.54 us      52.54 us
│ │ │ └ sirius::Simulation_context::update                                    1     555.45 ms       0.83      69.17     555.45 ms     555.45 ms     555.45 ms
│ │ │   ├ sirius::Unit_cell::update                                           1       1.09 ms       0.00       0.22       1.09 ms       1.09 ms       1.09 ms
│ │ │   │ ├ sirius::Unit_cell::find_nearest_neighbours                        1      40.27 us       0.00     100.00      40.27 us      40.27 us      40.27 us
│ │ │   │ └ sirius::Unit_cell::get_symmetry                                   1       1.05 ms       0.00       4.29       1.05 ms       1.05 ms       1.05 ms
│ │ │   │   └ sirius::Crystal_symmetry                                        1       1.00 ms       0.00      29.24       1.00 ms       1.00 ms       1.00 ms
│ │ │   │     ├ sirius::Crystal_symmetry|spg                                  1     702.63 us       0.00     100.00     702.63 us     702.63 us     702.63 us
│ │ │   │     ├ sirius::find_sym_atom                                         2       1.66 us       0.00     100.00     832.00 ns     538.00 ns       1.13 us
│ │ │   │     └ sirius::Crystal_symmetry|mag                                  1       3.41 us       0.00     100.00       3.41 us       3.41 us       3.41 us
│ │ │   ├ fft::Gvec::init                                                     2      26.92 ms       0.04      35.59      13.46 ms       5.95 ms      20.97 ms
│ │ │   │ ├ fft::Gvec::find_z_columns                                         2       2.73 ms       0.00       2.35       1.37 ms       1.16 ms       1.57 ms
│ │ │   │ │ ├ fft::Gvec::find_z_columns|add                                   2       1.30 ms       0.00     100.00     651.71 us     498.64 us     804.79 us
│ │ │   │ │ ├ fft::Gvec::find_z_columns|sym                                   2       1.33 ms       0.00     100.00     666.43 us     599.60 us     733.27 us
│ │ │   │ │ └ fft::Gvec::find_z_columns|sort                                  2      34.22 us       0.00     100.00      17.11 us      14.04 us      20.18 us
│ │ │   │ └ fft::Gvec::find_gvec_shells                                       2      14.61 ms       0.02     100.00       7.30 ms       2.88 ms      11.73 ms
│ │ │   ├ fft::Gvec_shells                                                    1      13.47 ms       0.02     100.00      13.47 ms      13.47 ms      13.47 ms
│ │ │   ├ sirius::Simulation_context::init_atoms_to_grid_idx                  1       3.06 ms       0.00     100.00       3.06 ms       3.06 ms       3.06 ms
│ │ │   └ sirius::Augmentation_operator::generate_pw_coeffs                   2     126.72 ms       0.19     100.00      63.36 ms       8.85 ms     117.87 ms
│ │ ├ fft::Gvec::init                                                        36      31.50 ms       0.05      79.71     816.98 us     643.55 us       1.43 ms
│ │ │ └ fft::Gvec::find_z_columns                                            36       6.39 ms       0.01       0.96     173.63 us     139.23 us     312.72 us
│ │ │   ├ fft::Gvec::find_z_columns|add                                      36       6.04 ms       0.01     100.00     163.32 us     132.29 us     296.97 us
│ │ │   ├ fft::Gvec::find_z_columns|sym                                      36       9.07 us       0.00     100.00      54.00 ns      36.00 ns       6.91 us
│ │ │   └ fft::Gvec::find_z_columns|sort                                     36     284.72 us       0.00     100.00       6.37 us       5.45 us      26.39 us
│ │ ├ sirius::Potential                                                       1     144.72 ms       0.22      10.12     144.72 ms     144.72 ms     144.72 ms
│ │ │ └ sirius::Potential::update                                             1     130.08 ms       0.19       0.06     130.08 ms     130.08 ms     130.08 ms
│ │ │   └ sirius::Potential::generate_local_potential                         1     130.00 ms       0.19      97.04     130.00 ms     130.00 ms     130.00 ms
│ │ │     ├ sirius::make_periodic_function                                    1     382.11 us       0.00     100.00     382.11 us     382.11 us     382.11 us
│ │ │     └ sirius::Smooth_periodic_function::fft_transform                   1       3.47 ms       0.01     100.00       3.47 ms       3.47 ms       3.47 ms
│ │ ├ sirius::Density                                                         1      48.87 ms       0.07       4.53      48.87 ms      48.87 ms      48.87 ms
│ │ │ └ sirius::Density::update                                               1      46.66 ms       0.07       0.10      46.66 ms      46.66 ms      46.66 ms
│ │ │   └ sirius::Density::generate_pseudo_core_charge_density                1      46.61 ms       0.07      91.68      46.61 ms      46.61 ms      46.61 ms
│ │ │     ├ sirius::make_periodic_function                                    1     564.08 us       0.00     100.00     564.08 us     564.08 us     564.08 us
│ │ │     └ sirius::Smooth_periodic_function::fft_transform                   1       3.32 ms       0.00     100.00       3.32 ms       3.32 ms       3.32 ms
│ │ ├ sirius_api::sirius_set_pw_coeffs                                        2       8.43 ms       0.01      30.50       4.21 ms       4.02 ms       4.41 ms
│ │ │ └ sirius::Smooth_periodic_function::fft_transform                       2       5.86 ms       0.01     100.00       2.93 ms       2.87 ms       2.99 ms
│ │ ├ sirius::Density::generate_paw_density                                   1       2.63 ms       0.00     100.00       2.63 ms       2.63 ms       2.63 ms
│ │ └ sirius::Potential::generate                                             1     503.83 ms       0.75       0.16     503.83 ms     503.83 ms     503.83 ms
│ │   ├ sirius::Potential::poisson                                            1       3.83 ms       0.01       0.82       3.83 ms       3.83 ms       3.83 ms
│ │   │ ├ sirius::Smooth_periodic_function::fft_transform                     1       2.90 ms       0.00     100.00       2.90 ms       2.90 ms       2.90 ms
│ │   │ └ sirius::inner                                                       1     907.71 us       0.00       0.03     907.71 us     907.71 us     907.71 us
│ │   │   └ sirius::inner                                                     1     907.40 us       0.00     100.00     907.40 us     907.40 us     907.40 us
│ │   ├ sirius::Periodic_function::add                                        2     139.80 us       0.00     100.00      69.90 us      45.99 us      93.81 us
│ │   ├ sirius::Potential::xc                                                 1     184.70 ms       0.28       0.30     184.70 ms     184.70 ms     184.70 ms
│ │   │ └ sirius::Potential::xc_rg_magnetic                                   1     184.14 ms       0.27      32.63     184.14 ms     184.14 ms     184.14 ms
│ │   │   ├ sirius::get_rho_up_dn                                             1      17.06 ms       0.03     100.00      17.06 ms      17.06 ms      17.06 ms
│ │   │   ├ sirius::Potential::xc_rg_magnetic|grad1                           1      37.63 ms       0.06       0.22      37.63 ms      37.63 ms      37.63 ms
│ │   │   │ ├ sirius::Smooth_periodic_function::fft_transform                 8      23.67 ms       0.04     100.00       2.98 ms       2.68 ms       3.18 ms
│ │   │   │ ├ sirius::gradient                                                2       9.52 ms       0.01     100.00       4.76 ms       4.74 ms       4.78 ms
│ │   │   │ └ sirius::dot                                                     3       4.35 ms       0.01     100.00       1.30 ms       1.18 ms       1.87 ms
│ │   │   ├ sirius::Potential::xc_rg_magnetic|libxc                           2      17.20 ms       0.03     100.00       8.60 ms       8.58 ms       8.63 ms
│ │   │   ├ sirius::Smooth_periodic_function::fft_transform                  16      46.82 ms       0.07     100.00       2.95 ms       2.68 ms       3.27 ms
│ │   │   └ sirius::divergence                                                4       5.34 ms       0.01     100.00       1.32 ms       1.06 ms       1.63 ms
│ │   ├ sirius::Smooth_periodic_function::fft_transform                       2       6.09 ms       0.01     100.00       3.05 ms       3.00 ms       3.10 ms
│ │   ├ sirius::Potential::generate_D_operator_matrix                         1      14.57 ms       0.02     100.00      14.57 ms      14.57 ms      14.57 ms
│ │   └ sirius::Potential::generate_PAW_effective_potential                   1     293.70 ms       0.44      99.75     293.70 ms     293.70 ms     293.70 ms
│ │     └ sirius::symmetrize_mt_function                                      4     748.08 us       0.00     100.00     138.49 us      99.72 us     371.39 us
│ ├ sirius::K_point_set::initialize                                           1       4.52 s        6.73       0.00       4.52 s        4.52 s        4.52 s 
│ │ └ sirius::K_point::initialize                                            36       4.52 s        6.73       0.05     124.99 ms     109.34 ms     158.29 ms
│ │   ├ sirius::K_point::generate_gkvec                                      36       4.45 s        6.62     100.00     123.08 ms     107.79 ms     156.96 ms
│ │   └ sirius::K_point::update                                              36      67.80 ms       0.10      21.22       1.71 ms       1.18 ms       6.62 ms
│ │     └ sirius::Beta_projectors                                            36      53.41 ms       0.08       0.92       1.30 ms     705.27 us       6.30 ms
│ │       ├ sirius::Beta_projectors::generate_pw_coefs_t                     36      31.09 ms       0.05     100.00     728.04 us     477.04 us       5.60 ms
│ │       └ sirius::Beta_projectors_base::generate                           36      21.83 ms       0.03     100.00     540.56 us     189.49 us       1.90 ms
│ ├ electrons                                                                 1      56.15 s       83.62       0.00      56.15 s       56.15 s       56.15 s 
│ │ ├ sirius::Hamiltonian0                                                    1       5.65 ms       0.01       3.11       5.65 ms       5.65 ms       5.65 ms
│ │ │ ├ sirius::Local_operator                                                1       4.57 ms       0.01      56.82       4.57 ms       4.57 ms       4.57 ms
│ │ │ │ └ sirius::Smooth_periodic_function::fft_transform                     2       1.97 ms       0.00     100.00     987.12 us     888.94 us       1.09 ms
│ │ │ ├ sirius::Non_local_operator                                            2       4.04 us       0.00     100.00       2.02 us       1.35 us       2.69 us
│ │ │ ├ sirius::D_operator::initialize                                        1     300.23 us       0.00     100.00     300.23 us     300.23 us     300.23 us
│ │ │ └ sirius::Q_operator::initialize                                        1     597.49 us       0.00     100.00     597.49 us     597.49 us     597.49 us
│ │ ├ sirius::initialize_subspace_kset                                        1       1.06 s        1.58       0.11       1.06 s        1.06 s        1.06 s 
│ │ │ ├ sirius::Hamiltonian_k                                                36       1.07 ms       0.00       5.57      25.67 us      22.68 us     113.72 us
│ │ │ │ └ sirius::Local_operator::prepare_k                                  36       1.01 ms       0.00     100.00      24.24 us      21.54 us     105.89 us
│ │ │ └ sirius::initialize_subspace|kp                                       36       1.06 s        1.58       1.09      28.50 ms      21.39 ms      56.43 ms
│ │ │   ├ sirius::K_point::generate_atomic_wave_functions                    36       9.18 ms       0.01     100.00     250.12 us     170.05 us     669.13 us
│ │ │   ├ sirius::initialize_subspace|kp|wf                                  36     590.24 us       0.00     100.00      15.86 us      13.04 us      23.66 us
│ │ │   ├ sirius::Hamiltonian_k::apply_h_s                                   72     957.47 ms       1.43       0.34      12.91 ms       9.30 ms      26.48 ms
│ │ │   │ ├ sirius::Local_operator::apply_h                                  72     901.36 ms       1.34       0.52      12.24 ms       8.64 ms      25.09 ms
│ │ │   │ │ └ sirius::Local_operator::apply_h|bands                          72     896.68 ms       1.34     100.00      12.19 ms       8.60 ms      25.01 ms
│ │ │   │ ├ wf::copy                                                         72       6.74 ms       0.01     100.00      80.18 us      60.15 us     710.41 us
│ │ │   │ ├ sirius::Beta_projectors_base::generate                           72      85.80 us       0.00     100.00       1.04 us     684.00 ns       7.36 us
│ │ │   │ ├ wf::inner                                                        72      20.40 ms       0.03     100.00     260.87 us     212.91 us     816.62 us
│ │ │   │ └ sirius::Non_local_operator::apply                               144      25.67 ms       0.04     100.00     168.66 us     134.49 us     603.66 us
│ │ │   ├ sirius::generate_subspace_matrix                                  144      27.32 ms       0.04       2.29     182.36 us     156.37 us     366.88 us
│ │ │   │ └ wf::inner                                                       144      26.69 ms       0.04     100.00     178.06 us     152.86 us     340.60 us
│ │ │   ├ Eigensolver_lapack|zhegvx                                          72      29.52 ms       0.04     100.00     374.41 us     337.32 us       1.89 ms
│ │ │   └ wf::transform                                                      72      22.42 ms       0.03     100.00     303.16 us     230.70 us     768.39 us
│ │ └ sirius::DFT_ground_state::scf_loop                                      1      55.09 s       82.03       0.09      55.09 s       55.09 s       55.09 s 
│ │   ├ sirius::Density                                                       1      26.16 ms       0.04       8.27      26.16 ms      26.16 ms      26.16 ms
│ │   │ └ sirius::Density::update                                             1      24.00 ms       0.04       0.19      24.00 ms      24.00 ms      24.00 ms
│ │   │   └ sirius::Density::generate_pseudo_core_charge_density              1      23.96 ms       0.04      90.50      23.96 ms      23.96 ms      23.96 ms
│ │   │     ├ sirius::make_periodic_function                                  1     282.38 us       0.00     100.00     282.38 us     282.38 us     282.38 us
│ │   │     └ sirius::Smooth_periodic_function::fft_transform                 1       1.99 ms       0.00     100.00       1.99 ms       1.99 ms       1.99 ms
│ │   ├ sirius::DFT_ground_state::scf_loop|iteration                         15      54.98 s       81.87       0.15       3.37 s        2.76 s        5.15 s 
│ │   │ ├ sirius::Hamiltonian0                                               15      30.15 ms       0.04       0.69       1.92 ms       1.64 ms       2.48 ms
│ │   │ │ ├ sirius::Local_operator                                           15      23.05 ms       0.03      15.79       1.49 ms       1.19 ms       1.95 ms
│ │   │ │ │ └ sirius::Smooth_periodic_function::fft_transform                30      19.41 ms       0.03     100.00     664.38 us     367.88 us     927.81 us
│ │   │ │ ├ sirius::Non_local_operator                                       30      23.35 us       0.00     100.00     730.50 ns     137.00 ns       3.31 us
│ │   │ │ ├ sirius::D_operator::initialize                                   15       1.92 ms       0.00     100.00     113.39 us     110.57 us     264.61 us
│ │   │ │ └ sirius::Q_operator::initialize                                   15       4.95 ms       0.01     100.00     302.05 us     290.97 us     627.42 us
│ │   │ ├ sirius::diagonalize                                                15      42.04 s       62.60       0.07       2.55 s        1.95 s        4.17 s 
│ │   │ │ ├ sirius::Hamiltonian_k                                           540      15.25 ms       0.02       6.57      27.22 us      18.97 us      66.27 us
│ │   │ │ │ └ sirius::Local_operator::prepare_k                             540      14.25 ms       0.02     100.00      25.53 us      17.31 us      63.07 us
│ │   │ │ ├ sirius::davidson                                                540      41.99 s       62.54       0.05      72.74 ms      41.39 ms     180.65 ms
│ │   │ │ │ ├ sirius::davidson|init                                         540     664.53 ms       0.99       5.94       1.20 ms       1.10 ms       1.88 ms
│ │   │ │ │ │ └ sirius::Hamiltonian_k::get_h_o_diag                         540     625.04 ms       0.93     100.00       1.13 ms       1.04 ms       1.73 ms
│ │   │ │ │ └ sirius::davidson|iter                                         540      41.31 s       61.51       0.14      71.56 ms      40.20 ms     179.23 ms
│ │   │ │ │   ├ wf::copy                                                   4966     264.69 ms       0.39     100.00      61.87 us       3.55 us     683.45 us
│ │   │ │ │   ├ sirius::Hamiltonian_k::apply_h_s                           4966      34.27 s       51.04       0.53       8.80 ms       1.01 ms      22.68 ms
│ │   │ │ │   │ ├ sirius::Local_operator::apply_h                          4966      31.56 s       47.00       0.49       8.20 ms     638.08 us      21.85 ms
│ │   │ │ │   │ │ └ sirius::Local_operator::apply_h|bands                  4966      31.41 s       46.77     100.00       8.16 ms     630.49 us      21.80 ms
│ │   │ │ │   │ ├ wf::copy                                                 4966     214.42 ms       0.32     100.00      41.03 us       5.17 us     925.02 us
│ │   │ │ │   │ ├ sirius::Beta_projectors_base::generate                   4966       4.46 ms       0.01     100.00     785.00 ns     532.00 ns      12.11 us
│ │   │ │ │   │ ├ wf::inner                                                4966     926.76 ms       1.38     100.00     207.47 us      97.73 us       3.90 ms
│ │   │ │ │   │ └ sirius::Non_local_operator::apply                        9932       1.39 s        2.07     100.00     137.80 us     105.17 us       4.60 ms
│ │   │ │ │   ├ wf::orthogonalize                                          4966     936.78 ms       1.40       1.01     250.50 us      47.03 us       3.69 ms
│ │   │ │ │   │ ├ wf::inner                                                4966     508.25 ms       0.76     100.00     144.21 us      11.16 us     385.89 us
│ │   │ │ │   │ ├ wf::orthogonalize|tmtrx                                  4966      34.48 ms       0.05     100.00       8.23 us       2.53 us     125.17 us
│ │   │ │ │   │ └ wf::orthogonalize|trans                                  4966     384.55 ms       0.57     100.00      92.09 us      30.97 us       3.52 ms
│ │   │ │ │   ├ sirius::generate_subspace_matrix                           4966     825.38 ms       1.23      15.49     172.61 us      35.41 us     557.70 us
│ │   │ │ │   │ └ wf::inner                                                4966     697.49 ms       1.04     100.00     153.28 us      12.71 us     527.17 us
│ │   │ │ │   ├ Eigensolver_lapack|zheevx                                  4966       1.37 s        2.03     100.00     235.78 us      31.75 us       1.07 ms
│ │   │ │ │   ├ sirius::residuals                                          4966       1.50 s        2.24      12.87     343.13 us       5.09 us       3.54 ms
│ │   │ │ │   │ ├ wf::transform                                            7898     824.59 ms       1.23     100.00     113.91 us       8.99 us     484.68 us
│ │   │ │ │   │ └ sirius::normalized_preconditioned_residuals              3949     485.24 ms       0.72      17.78     112.38 us      43.32 us       3.31 ms
│ │   │ │ │   │   ├ wf::inner_diag                                         7898     247.32 ms       0.37     100.00      26.84 us       3.29 us     182.21 us
│ │   │ │ │   │   ├ sirius::apply_preconditioner                           3949     103.62 ms       0.15     100.00      22.78 us      17.51 us       3.24 ms
│ │   │ │ │   │   ├ wf::axpby                                              3949      44.12 ms       0.07     100.00      10.64 us       6.79 us     117.17 us
│ │   │ │ │   │   └ wf::copy                                                943       3.91 ms       0.01     100.00       3.98 us       1.99 us      61.07 us
│ │   │ │ │   ├ sirius::project_out_subspace                               3886     927.82 ms       1.38       0.29     245.18 us     125.88 us       4.65 ms
│ │   │ │ │   │ ├ wf::inner                                                3886     517.48 ms       0.77     100.00     135.09 us      65.13 us       4.47 ms
│ │   │ │ │   │ └ wf::transform                                            3886     407.66 ms       0.61     100.00     105.65 us      60.38 us     263.34 us
│ │   │ │ │   └ sirius::davidson|update_phi                                2744       1.15 s        1.72       0.74     610.16 us      10.34 us       1.20 ms
│ │   │ │ │     ├ wf::transform                                            6072     735.39 ms       1.10     100.00     124.50 us      10.07 us     288.83 us
│ │   │ │ │     └ wf::copy                                                 4992     408.06 ms       0.61     100.00      83.36 us      11.75 us     146.89 us
│ │   │ │ └ sirius::K_point_set::sync_band                                   15     833.13 us       0.00     100.00      53.38 us      47.96 us      71.39 us
│ │   │ ├ sirius::K_point_set::find_band_occupancies                         15     433.65 ms       0.65      99.84      28.55 ms      27.37 ms      31.65 ms
│ │   │ │ └ sirius::K_point_set::sync_band                                   15     703.89 us       0.00     100.00      45.57 us      39.52 us      62.47 us
│ │   │ ├ sirius::Density::generate                                          15       6.60 s        9.83       0.00     426.79 ms     402.96 ms     517.41 ms
│ │   │ │ ├ sirius::Density::generate_valence                                15       6.50 s        9.68       0.55     420.40 ms     396.93 ms     511.16 ms
│ │   │ │ │ ├ sirius::add_k_point_contribution_dm_pwpp                      540     277.61 ms       0.41      18.93     472.78 us     442.23 us       4.28 ms
│ │   │ │ │ │ ├ sirius::Beta_projectors_base::generate                      540     834.92 us       0.00     100.00       1.38 us     891.00 ns      10.89 us
│ │   │ │ │ │ └ wf::inner                                                  1080     224.22 ms       0.33     100.00     198.37 us     171.30 us     776.10 us
│ │   │ │ │ ├ sirius::Density::add_k_point_contribution_rg                  540       4.15 s        6.19     100.00       7.23 ms       6.03 ms      12.70 ms
│ │   │ │ │ ├ sirius::Smooth_periodic_function::fft_transform                30      15.81 ms       0.02     100.00     511.45 us     332.44 us       1.17 ms
│ │   │ │ │ └ sirius::Density::augment                                       15       2.02 s        3.01       0.02     135.73 ms     125.51 ms     138.00 ms
│ │   │ │ │   └ sirius::Density::generate_rho_aug                            15       2.02 s        3.01       3.31     135.70 ms     125.47 ms     137.97 ms
│ │   │ │ │     ├ sirius::Density::generate_rho_aug|gemm                     60       1.89 s        2.81     100.00       5.16 ms       1.56 ms     119.79 ms
│ │   │ │ │     └ sirius::Density::generate_rho_aug|sum                      60      61.40 ms       0.09     100.00     985.48 us     156.95 us       2.09 ms
│ │   │ │ ├ sirius::symmetrize_density_matrix                                15       4.03 us       0.00     100.00     224.00 ns     197.00 ns     627.00 ns
│ │   │ │ ├ sirius::Density::generate_paw_density                            15      33.54 ms       0.05     100.00       2.12 ms       2.09 ms       3.69 ms
│ │   │ │ └ sirius::Smooth_periodic_function::fft_transform                  30      64.60 ms       0.10     100.00       1.99 ms       1.61 ms       3.90 ms
│ │   │ ├ sirius::inner                                                     270     263.60 ms       0.39      16.92     936.42 us     879.51 us       1.77 ms
│ │   │ │ └ sirius::inner                                                   225     218.99 ms       0.33     100.00     936.29 us     879.33 us       1.74 ms
│ │   │ ├ sirius::Density::mix                                               15     407.53 ms       0.61      40.81      31.59 ms      10.40 ms      37.46 ms
│ │   │ │ ├ sirius::Density::mixer_input                                     15       8.68 ms       0.01     100.00     575.05 us     564.28 us     601.05 us
│ │   │ │ ├ sirius::inner                                                   169     159.09 ms       0.24       0.03     930.21 us     788.25 us       1.30 ms
│ │   │ │ │ └ sirius::inner                                                 169     159.05 ms       0.24     100.00     929.78 us     788.08 us       1.30 ms
│ │   │ │ └ sirius::Density::mixer_output                                    15      73.43 ms       0.11       9.46       4.66 ms       4.09 ms       8.70 ms
│ │   │ │   └ sirius::Smooth_periodic_function::fft_transform                30      66.48 ms       0.10     100.00       2.06 ms       1.65 ms       4.25 ms
│ │   │ ├ sirius::Potential::generate                                        15       4.91 s        7.32       0.18     321.28 ms     290.85 ms     381.22 ms
│ │   │ │ ├ sirius::Potential::poisson                                       15      47.59 ms       0.07       0.67       3.01 ms       2.78 ms       5.16 ms
│ │   │ │ │ ├ sirius::Smooth_periodic_function::fft_transform                15      32.54 ms       0.05     100.00       2.06 ms       1.84 ms       4.19 ms
│ │   │ │ │ └ sirius::inner                                                  15      14.74 ms       0.02       0.03     926.65 us     921.47 us       1.69 ms
│ │   │ │ │   └ sirius::inner                                                15      14.73 ms       0.02     100.00     926.34 us     921.30 us       1.69 ms
│ │   │ │ ├ sirius::Periodic_function::add                                   30       1.44 ms       0.00     100.00      52.02 us      29.70 us      87.40 us
│ │   │ │ ├ sirius::Potential::xc                                            15       1.51 s        2.25       0.55      90.49 ms      80.07 ms     141.36 ms
│ │   │ │ │ └ sirius::Potential::xc_rg_magnetic                              15       1.51 s        2.24      28.59      89.39 ms      79.55 ms     140.85 ms
│ │   │ │ │   ├ sirius::get_rho_up_dn                                        15     132.80 ms       0.20     100.00       7.36 ms       5.85 ms      21.92 ms
│ │   │ │ │   ├ sirius::Potential::xc_rg_magnetic|grad1                      15     266.59 ms       0.40       0.09      16.48 ms      15.74 ms      28.80 ms
│ │   │ │ │   │ ├ sirius::Smooth_periodic_function::fft_transform           120     231.82 ms       0.35     100.00       1.79 ms       1.60 ms       3.90 ms
│ │   │ │ │   │ ├ sirius::gradient                                           30      22.64 ms       0.03     100.00     746.21 us     722.72 us     825.14 us
│ │   │ │ │   │ └ sirius::dot                                                45      11.89 ms       0.02     100.00     259.76 us     252.16 us     308.45 us
│ │   │ │ │   ├ sirius::Potential::xc_rg_magnetic|libxc                      30     146.19 ms       0.22     100.00       4.23 ms       2.67 ms      12.32 ms
│ │   │ │ │   ├ sirius::Smooth_periodic_function::fft_transform             240     490.18 ms       0.73     100.00       1.85 ms       1.62 ms       4.40 ms
│ │   │ │ │   └ sirius::divergence                                           60      39.33 ms       0.06     100.00     620.15 us     561.32 us       1.26 ms
│ │   │ │ ├ sirius::Smooth_periodic_function::fft_transform                  60     121.65 ms       0.18     100.00       1.82 ms       1.60 ms       3.28 ms
│ │   │ │ ├ sirius::Potential::generate_D_operator_matrix                    15     145.28 ms       0.22     100.00       9.25 ms       9.03 ms      14.98 ms
│ │   │ │ └ sirius::Potential::generate_PAW_effective_potential              15       3.07 s        4.58      99.74     204.45 ms     191.31 ms     215.82 ms
│ │   │ │   └ sirius::symmetrize_mt_function                                 60       8.00 ms       0.01     100.00     128.34 us      72.34 us     340.63 us
│ │   │ ├ sirius::Periodic_function::integrate                               15      14.03 ms       0.02     100.00     885.70 us     881.78 us       1.56 ms
│ │   │ └ sirius::Density::get_magnetisation                                 15     189.70 ms       0.28       0.07      11.66 ms       9.59 ms      18.53 ms
│ │   │   ├ sirius::Periodic_function::integrate                             15      14.03 ms       0.02     100.00     882.12 us     880.68 us       1.61 ms
│ │   │   └ sirius::Density::compute_atomic_mag_mom                          15     175.53 ms       0.26     100.00      10.76 ms       8.71 ms      17.61 ms
│ │   ├ sirius::inner                                                        22      20.98 ms       0.03      23.10     927.72 us     912.32 us       1.10 ms
│ │   │ └ sirius::inner                                                      17      16.13 ms       0.02     100.00     926.05 us     912.18 us       1.05 ms
│ │   ├ sirius::Periodic_function::integrate                                  1     882.19 us       0.00     100.00     882.19 us     882.19 us     882.19 us
│ │   ├ sirius::Density::get_magnetisation                                    1      11.13 ms       0.02       0.04      11.13 ms      11.13 ms      11.13 ms
│ │   │ ├ sirius::Periodic_function::integrate                                1     881.54 us       0.00     100.00     881.54 us     881.54 us     881.54 us
│ │   │ └ sirius::Density::compute_atomic_mag_mom                             1      10.24 ms       0.02     100.00      10.24 ms      10.24 ms      10.24 ms
│ │   └ sirius::Smooth_periodic_function::fft_transform                       1       3.09 ms       0.00     100.00       3.09 ms       3.09 ms       3.09 ms
│ ├ sirius::inner                                                             4       3.76 ms       0.01      24.48     935.19 us     919.42 us     968.37 us
│ │ └ sirius::inner                                                           3       2.84 ms       0.00     100.00     948.01 us     921.80 us     968.22 us
│ ├ sirius_api::sirius_get_pw_coeffs                                          2       2.26 ms       0.00      93.09       1.13 ms     998.22 us       1.26 ms
│ │ └ sirius::Smooth_periodic_function::gather_f_pw                           2     155.86 us       0.00     100.00      77.93 us      62.54 us      93.33 us
│ ├ fft                                                                       2     724.05 us       0.00     100.00     362.03 us     286.89 us     437.16 us
│ ├ sirius_api::sirius_get_wave_functions                                    72      22.25 ms       0.03     100.00     287.35 us     249.65 us       1.67 ms
│ ├ ions                                                                      1       1.34 s        1.99       0.01       1.34 s        1.34 s        1.34 s 
│ │ ├ forces                                                                  1     261.10 ms       0.39       0.15     261.10 ms     261.10 ms     261.10 ms
│ │ │ ├ sirius::Force::calc_forces_us                                         1      28.20 ms       0.04      77.43      28.20 ms      28.20 ms      28.20 ms
│ │ │ │ └ sirius::Smooth_periodic_function::fft_transform                     2       6.37 ms       0.01     100.00       3.18 ms       2.94 ms       3.42 ms
│ │ │ ├ sirius::Force::calc_forces_nonloc                                     1     129.54 ms       0.19       4.35     129.54 ms     129.54 ms     129.54 ms
│ │ │ │ └ sirius::add_k_point_contribution_nonlocal                          36     123.91 ms       0.18      48.24       3.43 ms       3.37 ms       3.70 ms
│ │ │ │   ├ sirius::Beta_projectors_base::generate                          144      11.68 ms       0.02       4.15     104.76 us     960.00 ns     133.26 us
│ │ │ │   │ └ sirius::Beta_projectors_base::generate                        108      11.20 ms       0.02     100.00     101.98 us      96.38 us     129.41 us
│ │ │ │   └ wf::inner                                                       288      52.45 ms       0.08     100.00     178.85 us     169.50 us     262.59 us
│ │ │ ├ sirius::Force::calc_forces_scf_corr                                   1      24.55 ms       0.04     100.00      24.55 ms      24.55 ms      24.55 ms
│ │ │ ├ sirius::Force::calc_forces_vloc                                       1      48.86 ms       0.07     100.00      48.86 ms      48.86 ms      48.86 ms
│ │ │ ├ sirius::Force::calc_forces_ewald                                      1       2.71 ms       0.00     100.00       2.71 ms       2.71 ms       2.71 ms
│ │ │ └ sirius::Force::calc_forces_core                                       1      26.85 ms       0.04      90.94      26.85 ms      26.85 ms      26.85 ms
│ │ │   └ sirius::Smooth_periodic_function::fft_transform                     1       2.43 ms       0.00     100.00       2.43 ms       2.43 ms       2.43 ms
│ │ └ stress                                                                  1       1.07 s        1.60       6.32       1.07 s        1.07 s        1.07 s 
│ │   ├ sirius::Stress|vloc                                                   1     148.05 ms       0.22      99.87     148.05 ms     148.05 ms     148.05 ms
│ │   │ └ sirius::make_periodic_function                                      2     199.52 us       0.00     100.00      99.76 us      93.03 us     106.49 us
│ │   ├ sirius::Stress|har                                                    1     575.05 us       0.00     100.00     575.05 us     575.05 us     575.05 us
│ │   ├ sirius::inner                                                         4       3.91 ms       0.01      25.84     971.09 us     935.85 us       1.03 ms
│ │   │ └ sirius::inner                                                       3       2.90 ms       0.00     100.00     962.90 us     935.43 us       1.00 ms
│ │   ├ sirius::get_rho_up_dn                                                 1      10.18 ms       0.02     100.00      10.18 ms      10.18 ms      10.18 ms
│ │   ├ sirius::Smooth_periodic_function::fft_transform                       9      18.48 ms       0.03     100.00       1.86 ms       1.82 ms       3.14 ms
│ │   ├ sirius::gradient                                                      2       1.55 ms       0.00     100.00     775.53 us     718.51 us     832.54 us
│ │   ├ sirius::Stress|ewald                                                  1       1.82 ms       0.00     100.00       1.82 ms       1.82 ms       1.82 ms
│ │   ├ sirius::make_periodic_function                                        1      70.94 us       0.00     100.00      70.94 us      70.94 us      70.94 us
│ │   ├ sirius::Stress|kin                                                    1       2.15 ms       0.00     100.00       2.15 ms       2.15 ms       2.15 ms
│ │   ├ sirius::Stress|nonloc                                                 1     398.62 ms       0.59       0.08     398.62 ms     398.62 ms     398.62 ms
│ │   │ ├ sirius::Beta_projectors_strain_deriv::generate_pw_coefs_t          36      51.48 ms       0.08     100.00       1.46 ms       1.08 ms       2.17 ms
│ │   │ └ sirius::add_k_point_contribution_nonlocal                          36     346.80 ms       0.52      52.39       9.44 ms       9.32 ms      14.40 ms
│ │   │   ├ sirius::Beta_projectors_base::generate                          360      34.74 ms       0.05       3.84     103.65 us     970.00 ns     152.62 us
│ │   │   │ └ sirius::Beta_projectors_base::generate                        324      33.40 ms       0.05     100.00     100.33 us      95.13 us     146.47 us
│ │   │   └ wf::inner                                                       720     130.38 ms       0.19     100.00     177.61 us     163.95 us     284.11 us
│ │   └ sirius::Stress|us                                                     1     420.70 ms       0.63       2.96     420.70 ms     420.70 ms     420.70 ms
│ │     ├ sirius::Smooth_periodic_function::fft_transform                     2       4.07 ms       0.01     100.00       2.04 ms       1.86 ms       2.21 ms
│ │     ├ sirius::Stress|us|phase_fac                                         2     120.95 us       0.00     100.00      60.48 us      53.40 us      67.55 us
│ │     ├ sirius::Augmentation_operator::generate_pw_coeffs_gvec_deriv        6     337.50 ms       0.50     100.00      51.28 ms       5.86 ms     119.85 ms
│ │     ├ sirius::Stress|us|prepare                                          36       1.73 ms       0.00     100.00      42.93 us      38.92 us      94.81 us
│ │     └ sirius::Stress|us|gemm                                             36      64.82 ms       0.10     100.00       1.94 ms     660.71 us       2.97 ms
│ └ sirius::Smooth_periodic_function::gather_f_pw                             4     273.29 us       0.00     100.00      68.46 us      56.71 us      79.65 us
└ sirius::finalize                                                            1      99.62 us       0.00     100.00      99.62 us      99.62 us      99.62 us

=============================================================================================================================================================
